,Compound,Phase,Band gap (eV),VBM (eV),CBM (eV),Compound mass,Compound type,Phase index,Average radius,HSE-gap (eV),HSE-VBM (eV),HSE-CBM (eV),Vacuum level (eV),VBM absolute (eV),CBM absolute (eV),HSE vacuum level (eV),HSE VBM absolute (eV),HSE CBM absolute (eV)
100,SnSe,SnSe_0,0.927419354839,-1.92241935484,-0.987580645161,98.835,IV-VI,0,124.0,1.64666666667,-2.38933333333,-0.742666666667,2.42101580912,-4.34343516396,-3.408596454281,2.42094802255,-4.810281355880001,-3.1636146892170003
101,SnSe,SnSe_1,2.20994715447,-3.98194715447,-1.76305284553,98.835,IV-VI,1,124.0,2.97706896552,-4.55203448276,-1.57496551724,2.00746528768,-5.98941244215,-3.7705181332100004,2.04331588372,-6.59535036648,-3.61828140096
102,SnSe,SnSe_2,0.892375,-1.460375,-0.560625,98.835,IV-VI,2,124.0,1.477125,-1.8460625,-0.3689375,2.84553678814,-4.3059117881399995,-3.40616178814,2.84609344563,-4.692155945630001,-3.21503094563
103,SnTe,SnTe_0,0.684918367347,-1.32091836735,-0.629081632653,123.155,IV-VI,0,134.0,1.26742857143,-1.68021428571,-0.412785714286,2.79733275691,-4.11825112426,-3.426414389563,2.79730877744,-4.4775230631500005,-3.210094491726
104,SnTe,SnTe_1,1.90420779221,-3.19520779221,-1.28279220779,123.155,IV-VI,1,134.0,2.64214285714,-3.71707142857,-1.07492857143,2.22892841278,-5.424136204990001,-3.5117206205700002,2.25105985853,-5.9681312871,-3.32598842996
105,SnTe,SnTe_2,0.796929824561,-0.964929824561,-0.161070175439,123.155,IV-VI,2,134.0,1.32033333333,-1.27866666667,0.0416666666667,3.20854680364,-4.173476628201,-3.369616979079,3.20870261566,-4.48736928233,-3.1670359489933
106,PbO,PbO_0,2.3465,-1.5915,0.7645,111.5997,IV-VI,0,101.0,3.47351612903,-2.36725806452,1.10625806452,3.05577006049,-4.6472700604899995,-2.29127006049,2.99758066003,-5.36483872455,-1.8913225955100001
107,PbO,PbO_1,1.71013333333,5.23086666667,6.95513333333,111.5997,IV-VI,1,101.0,2.01263636364,4.99018181818,7.00281818182,,,,,,
108,PbO,PbO_2,2.21375221239,-1.28775221239,0.935752212389,111.5997,IV-VI,2,101.0,3.29035714286,-2.07067857143,1.21967857143,3.24880257089,-4.53655478328,-2.313050358501,3.18630009684,-5.2569786682699995,-1.9666215254100001
109,PbS,PbS_0,1.64146118721,-2.02346118721,-0.374538812785,119.633,IV-VI,0,121.0,2.40055555556,-2.54577777778,-0.145222222222,2.44170308451,-4.46516427172,-2.816241897295,2.42851996121,-4.97429773899,-2.573742183432
110,PbS,PbS_1,2.06177350427,-3.97077350427,-1.90022649573,119.633,IV-VI,1,121.0,2.8725,-4.51475,-1.64225,2.38658677204,-6.35736027631,-4.2868132677699995,2.44842051991,-6.96317051991,-4.09067051991
111,PbS,PbS_2,1.68947555556,-1.59747555556,0.0994755555556,119.633,IV-VI,2,121.0,2.40162962963,-2.01181481481,0.389814814815,2.90437222961,-4.50184778517,-2.8048966740543997,2.88898397883,-4.90079879364,-2.499169164015
112,PbSe,PbSe_0,1.2803583815,-2.1843583815,-0.896641618497,143.07999999999998,IV-VI,0,128.5,1.95490909091,-2.63945454545,-0.684545454545,2.31455720415,-4.49891558565,-3.2111988226470003,2.30553957059,-4.94499411604,-2.9900850251350004
113,PbSe,PbSe_1,1.89268202765,-3.79868202765,-1.89731797235,143.07999999999998,IV-VI,1,128.5,2.55852,-4.26676,-1.70824,2.17782280711,-5.97650483476,-4.07514077946,2.24334496454,-6.51010496454,-3.95158496454
114,PbSe,PbSe_2,1.34535164835,-1.87335164835,-0.520648351648,143.07999999999998,IV-VI,2,128.5,1.95272727273,-2.29436363636,-0.341636363636,2.66484498334,-4.53819663169,-3.185493334988,2.65416577901,-4.94852941537,-2.9958021426459998
115,PbTe,PbTe_0,1.26796685083,-1.87596685083,-0.601033149171,167.39999999999998,IV-VI,0,138.5,1.872,-2.324,-0.452,2.71063254573,-4.58659939656,-3.311665694901,2.70796060924,-5.03196060924,-3.15996060924
116,PbTe,PbTe_1,1.62102487562,-2.94902487562,-1.31997512438,167.39999999999998,IV-VI,1,138.5,2.34684,-3.42792,-1.08108,2.37990831263,-5.32893318825,-3.69988343701,2.42436331267,-5.85228331267,-3.50544331267
117,PbTe,PbTe_2,1.32296296296,-1.53696296296,-0.207037037037,167.39999999999998,IV-VI,2,138.5,1.80057142857,-1.90928571429,-0.108714285714,3.07929532037,-4.61625828333,-3.286332357407,3.0764900336,-4.98577574789,-3.185204319314